[Molden Format]
[Title]
 Molden file created by orca_2mkl for BaseName=H2+

[Atoms] AU
H    1   1         -2.0786987464         0.0000000000         0.0000000000 
H    2   1          3.5904796536         0.0000000000         0.0000000000 
[GTO]
  1 0
s   3 1.0 
        3.4252509100         0.2769343610
        0.6239137300         0.2678388518
        0.1688554000         0.0834736696

  2 0
s   3 1.0 
        3.4252509100         0.2769343610
        0.6239137300         0.2678388518
        0.1688554000         0.0834736696

[5D]
[7F]
[9G]
[MO]
 Sym=     1a
 Ene= -1.80539221176867E-01
 Spin= Alpha
 Occup= 2.000000
  1      -0.700737075725
  2      -0.700737075725
 Sym=     1a
 Ene= 1.80713289780140E-02
 Spin= Alpha
 Occup= 0.000000
  1      -0.713653407571
  2       0.713653407571
