2
Coordinates from ORCA-job H2+ Relaxed Surface Scan Step 1
  H       0.350000      0.000000      0.000000
  H       0.450000      0.000000      0.000000
>
2
Coordinates from ORCA-job H2+ Relaxed Surface Scan Step 2
  H       0.273684      0.000000      0.000000
  H       0.526316      0.000000      0.000000
>
2
Coordinates from ORCA-job H2+ Relaxed Surface Scan Step 3
  H       0.197368      0.000000      0.000000
  H       0.602632      0.000000      0.000000
>
2
Coordinates from ORCA-job H2+ Relaxed Surface Scan Step 4
  H       0.121053      0.000000      0.000000
  H       0.678947      0.000000      0.000000
>
2
Coordinates from ORCA-job H2+ Relaxed Surface Scan Step 5
  H       0.044737      0.000000      0.000000
  H       0.755263      0.000000      0.000000
>
2
Coordinates from ORCA-job H2+ Relaxed Surface Scan Step 6
  H      -0.031579      0.000000      0.000000
  H       0.831579      0.000000      0.000000
>
2
Coordinates from ORCA-job H2+ Relaxed Surface Scan Step 7
  H      -0.107895      0.000000      0.000000
  H       0.907895      0.000000      0.000000
>
2
Coordinates from ORCA-job H2+ Relaxed Surface Scan Step 8
  H      -0.184211      0.000000      0.000000
  H       0.984211      0.000000      0.000000
>
2
Coordinates from ORCA-job H2+ Relaxed Surface Scan Step 9
  H      -0.260526      0.000000      0.000000
  H       1.060526      0.000000      0.000000
>
2
Coordinates from ORCA-job H2+ Relaxed Surface Scan Step 10
  H      -0.336842      0.000000      0.000000
  H       1.136842      0.000000      0.000000
>
2
Coordinates from ORCA-job H2+ Relaxed Surface Scan Step 11
  H      -0.413158      0.000000      0.000000
  H       1.213158      0.000000      0.000000
>
2
Coordinates from ORCA-job H2+ Relaxed Surface Scan Step 12
  H      -0.489474      0.000000      0.000000
  H       1.289474      0.000000      0.000000
>
2
Coordinates from ORCA-job H2+ Relaxed Surface Scan Step 13
  H      -0.565789      0.000000      0.000000
  H       1.365789      0.000000      0.000000
>
2
Coordinates from ORCA-job H2+ Relaxed Surface Scan Step 14
  H      -0.642105      0.000000      0.000000
  H       1.442105      0.000000      0.000000
>
2
Coordinates from ORCA-job H2+ Relaxed Surface Scan Step 15
  H      -0.718421      0.000000      0.000000
  H       1.518421      0.000000      0.000000
>
2
Coordinates from ORCA-job H2+ Relaxed Surface Scan Step 16
  H      -0.794737      0.000000      0.000000
  H       1.594737      0.000000      0.000000
>
2
Coordinates from ORCA-job H2+ Relaxed Surface Scan Step 17
  H      -0.871053      0.000000      0.000000
  H       1.671053      0.000000      0.000000
>
2
Coordinates from ORCA-job H2+ Relaxed Surface Scan Step 18
  H      -0.947368      0.000000      0.000000
  H       1.747368      0.000000      0.000000
>
2
Coordinates from ORCA-job H2+ Relaxed Surface Scan Step 19
  H      -1.023684      0.000000      0.000000
  H       1.823684      0.000000      0.000000
>
2
Coordinates from ORCA-job H2+ Relaxed Surface Scan Step 20
  H      -1.100000      0.000000      0.000000
  H       1.900000      0.000000      0.000000
